# Converted from POSCAR to lammps format

8 atoms
2 atom types

0.000000    6.652395   xlo xhi
0.000000    6.652395   ylo yhi
0.000000    6.652395   zlo zhi

0.000000 0.000000 0.000000 xy xz yz

Atoms

   1  2      0.000000 0.000000 0.000000
   2  2      3.326198 3.326198 0.000000
   3  2      0.000000 3.326198 3.326198
   4  2      3.326198 0.000000 3.326198
   5  2      1.663099 1.663099 1.663099
   6  2      4.989296 4.989296 1.663099
   7  2      1.663099 4.989296 4.989296
   8  2      4.989296 1.663099 4.989296
