
4 atoms
2 atom types

0.000000   20.000000   xlo xhi
0.000000   20.000000   ylo yhi
0.000000   20.000000   zlo zhi

  0.000000    0.000000    0.000000   xy xz yz

Atoms

   1  1      4.000000 2.000000 0.000000
   2  1      0.000000 2.000000 0.000000
   3  2      2.000000 4.000000 0.000000
   4  2      2.000000 0.000000 0.000000
